LAMMPS data file

6000 atoms
4 atom types

-10 10 xlo xhi
-10 10 ylo yhi
-15 15 zlo zhi

Atoms # charge: id type q x y z

1	2	-1	-3.97302	4.70363	-4.30006
2	1	1	4.10939	8.90485	-2.47618
3	4	1	-2.39629	0.67850	8.00644
4	4	1	1.80396	-1.62955	6.07452
5	3	-1	3.29099	-7.75479	4.33410
6	3	-1	-8.95675	-6.08124	1.75244
7	1	1	0.19929	7.37915	-14.11253
8	3	-1	0.00136	8.73189	7.66556
9	4	1	-0.97354	-7.41497	3.01466
10	2	-1	2.90400	8.58373	-10.12927
11	2	-1	8.30733	9.40771	-0.12968
12	3	-1	-0.65616	9.50444	9.45556
13	2	-1	-8.09917	2.28620	-2.42571
14	4	1	-3.35893	-0.17882	1.61993
15	4	1	-1.75768	-0.91097	0.92371
16	2	-1	-3.10691	9.97557	-13.83119
17	3	-1	3.90978	2.80184	0.93898
18	3	-1	4.90004	8.47321	12.68445
19	4	1	-1.95600	9.72620	8.95631
20	1	1	6.67257	-3.35094	-0.69080
21	1	1	8.11630	7.29631	-12.48664
22	2	-1	-5.83248	-8.93125	-7.30532
23	2	-1	6.26936	1.73555	-3.28702
24	2	-1	-9.51439	-0.28710	-12.77869
25	3	-1	2.62570	8.44613	3.98253
26	2	-1	-4.04566	-1.74958	-4.04566
27	4	1	4.72323	5.61864	9.56195
28	2	-1	9.98684	-5.24621	-10.31716
29	4	1	6.04707	-4.36629	14.56370
30	4	1	8.30751	8.80323	0.33592
31	1	1	4.97012	8.46313	-13.93943
32	1	1	-8.67319	-8.38853	-4.08128
33	3	-1	-5.47971	4.97197	8.62404
34	4	1	1.50291	-3.84959	4.46724
35	1	1	-7.02934	7.79001	-3.48356
36	2	-1	8.54508	-8.93299	-9.55940
37	3	-1	1.16917	1.60664	9.89135
38	2	-1	-3.95245	-5.25031	-11.39469
39	4	1	4.70133	0.33750	1.81014
40	4	1	-5.02101	4.85262	10.38597
41	2	-1	-1.64956	-3.77597	-4.76107
42	4	1	-7.94497	-8.50834	6.08245
43	1	1	-3.84816	5.13470	-0.77019
44	1	1	-6.46378	-7.44608	-14.93819
45	1	1	9.30954	9.65252	-3.57136
46	3	-1	-7.20205	8.10304	14.96502
47	4	1	-0.63620	-1.78651	8.64266
48	4	1	0.57654	-7.93752	2.26092
49	4	1	3.26662	3.22832	7.04291
50	4	1	3.53996	1.52532	5.86453
51	2	-1	-8.64784	-3.57972	-4.56541
52	4	1	-9.59237	2.13863	12.88558
53	3	-1	-6.70859	0.02887	14.83333
54	2	-1	9.47210	-6.72448	-4.58402
55	1	1	-5.79354	-0.67282	-11.67447
56	3	-1	-0.88099	3.94499	5.32575
57	2	-1	-9.96413	7.71809	-14.67097
58	4	1	2.65535	2.32841	0.09060
59	1	1	7.95959	7.31283	-3.58687
60	3	-1	-4.44393	7.87444	12.10455
61	1	1	-5.89649	5.74872	-2.75936
62	3	-1	2.43946	-9.34551	0.06674
63	2	-1	1.56667	-0.08007	-6.28762
64	2	-1	-5.09885	5.80367	-3.87561
65	2	-1	0.30625	7.61627	-12.78402
66	2	-1	8.72464	-5.98872	-0.33738
67	3	-1	4.77480	-9.74244	2.10962
68	2	-1	5.55918	1.62050	-4.26563
69	4	1	8.43800	-8.03167	13.04207
70	3	-1	3.10731	-5.80708	12.79828
71	3	-1	2.23851	4.45227	11.58929
72	2	-1	-1.73815	-5.67366	-6.27977
73	4	1	-0.17467	6.79486	6.60261
74	3	-1	8.89499	-3.32798	14.84467
75	2	-1	-3.24592	-4.67619	-5.59313
76	4	1	1.08296	-9.86949	11.41604
77	2	-1	-1.29154	0.91256	-13.39914
78	1	1	2.96035	8.83562	-0.38156
79	2	-1	-4.55478	-5.18822	-7.04077
80	1	1	-9.13749	-2.53370	-2.45448
81	2	-1	-9.81638	2.49245	-13.67732
82	1	1	-6.32347	-9.59620	-1.33907
83	2	-1	-5.48333	-1.67454	-3.31538
84	1	1	-4.31968	6.77342	-5.66543
85	4	1	3.83964	-9.10218	12.48333
86	4	1	-9.80108	4.36805	13.93981
87	1	1	3.64562	-6.79321	-11.90233
88	4	1	-0.24457	-6.41744	10.79036
89	3	-1	-2.43907	-2.12488	0.97765
90	3	-1	-9.06934	6.53321	7.39131
91	3	-1	8.09955	-4.52434	3.86950
92	1	1	-9.90679	6.93705	-13.31055
93	1	1	-5.67294	-9.41536	-9.20456
94	2	-1	3.52411	-4.84044	-8.41200
95	4	1	-7.22468	-7.83362	9.37965
96	4	1	-9.87296	-7.85173	2.55788
97	2	-1	9.04594	2.20662	-0.91579
98	4	1	8.58818	4.10687	0.97162
99	4	1	-3.21257	7.47783	13.20929
100	4	1	-5.95161	7.32525	7.41369
101	4	1	-5.76948	9.17515	11.83565
102	3	-1	4.41430	-0.34566	3.56038
103	3	-1	-9.68240	-9.62837	11.57654
104	1	1	-7.24558	-6.79852	-3.56283
105	1	1	7.99307	3.58707	-13.41146
106	3	-1	3.66661	6.21622	2.31223
107	2	-1	-4.42802	-1.18930	-8.30903
108	3	-1	3.36255	8.79740	0.16026
109	3	-1	8.32172	5.03362	0.52259
110	4	1	8.49213	0.13017	0.61415
111	1	1	6.57413	2.74768	-3.33313
112	2	-1	4.61298	6.06671	-12.99797
113	2	-1	-9.73460	-7.96009	-3.88160
114	4	1	-2.78234	-4.35794	4.97773
115	1	1	-8.85568	-1.48440	-14.43915
116	3	-1	9.68114	-7.77349	5.92553
117	1	1	4.19209	-5.17080	-14.59910
118	1	1	8.32725	-7.87525	-2.40159
119	3	-1	8.85540	-8.01143	3.21910
120	1	1	-4.85435	-3.45326	-13.77976
121	3	-1	-0.02749	4.17380	11.56933
122	2	-1	-1.80326	-4.83359	-7.79857
123	4	1	-2.98033	-8.48185	4.93945
124	3	-1	-3.09130	-5.52781	2.06166
125	2	-1	-3.24343	-4.70051	-8.54979
126	1	1	9.30234	-1.23070	-12.84811
127	4	1	-6.09897	7.97962	14.32365
128	2	-1	3.22695	-3.66386	-7.47138
129	3	-1	-9.50467	6.54259	4.08843
130	2	-1	5.10169	-4.31120	-7.75717
131	4	1	9.14514	-6.75021	13.25551
132	1	1	-1.69480	-6.63452	-1.08916
133	1	1	-1.86797	-7.74800	-12.85829
134	2	-1	9.22103	7.19356	-11.06092
135	1	1	2.57929	-8.42632	-12.64364
136	1	1	-1.69228	-4.33858	-9.38345
137	2	-1	-4.04169	-6.85817	-11.35693
138	1	1	-0.62399	8.21296	-13.14752
139	2	-1	-3.76113	-8.23462	-12.52677
140	3	-1	5.45180	3.24596	2.21128
141	4	1	5.28736	-3.61812	12.81652
142	2	-1	-9.66457	-6.57118	-14.74624
143	2	-1	-6.62439	-5.91540	-9.24776
144	2	-1	-3.99722	4.04624	-5.38862
145	4	1	-0.14345	-1.29537	4.07799
146	1	1	1.33651	9.99579	-11.33892
147	2	-1	6.14252	-4.53518	-14.17544
148	4	1	-6.30565	0.21780	4.66790
149	3	-1	5.80831	-7.65121	5.21417
150	3	-1	9.75938	8.49695	3.54589
151	2	-1	-5.20665	5.99736	-10.51684
152	1	1	-0.69078	-6.15656	-14.66727
153	2	-1	-1.99184	6.06143	-1.73014
154	4	1	-8.58726	-2.25743	14.58783
155	2	-1	5.74505	-8.86857	-2.37079
156	3	-1	9.73522	-4.35578	9.83884
157	2	-1	-2.56370	1.30045	-4.31710
158	2	-1	-6.46387	-0.81478	-2.23965
159	3	-1	-2.71371	-6.62969	6.69155
160	3	-1	-0.77487	-8.09675	1.35587
161	1	1	-7.82530	0.23804	-14.04449
162	4	1	-4.39128	9.06990	9.04945
163	3	-1	7.27230	-4.21809	5.25610
164	3	-1	8.73670	6.11985	11.34355
165	2	-1	7.26196	3.42879	-6.88406
166	1	1	-9.06055	5.28600	-2.46389
167	1	1	-5.87444	-4.45656	-1.96005
168	3	-1	7.06965	-3.24809	1.20407
169	3	-1	6.72043	-7.16608	0.05013
170	4	1	5.69953	5.00925	4.27439
171	3	-1	-3.53348	5.10005	9.69547
172	3	-1	6.99138	-3.74419	5.47892
173	3	-1	6.26988	5.50705	6.42508
174	4	1	-8.43313	8.76173	7.22780
175	1	1	0.40476	5.39456	-5.26304
176	3	-1	-6.45855	-1.00439	9.52769
177	4	1	-4.88312	7.35121	11.03356
178	2	-1	-5.61391	9.75453	-13.23072
179	4	1	0.01740	-5.38193	11.83901
180	1	1	1.37279	5.60851	-3.26850
181	1	1	-2.71234	-5.86407	-14.13842
182	2	-1	6.68627	-9.59722	-6.80637
183	4	1	2.74927	-4.86999	6.30263
184	4	1	0.19386	-8.84314	0.36197
185	2	-1	-7.97692	5.22058	-4.31339
186	1	1	3.43950	-7.68870	-10.59033
187	3	-1	-6.45876	2.62776	4.67496
188	3	-1	1.38423	-5.67123	2.71042
189	3	-1	6.22499	4.50083	4.92738
190	1	1	-2.09384	-1.74405	-7.58902
191	4	1	4.40291	-2.64983	13.60651
192	4	1	-7.94017	-2.98750	14.52414
193	4	1	-2.35550	2.35771	8.55578
194	3	-1	3.27908	7.11787	11.49155
195	1	1	-5.55801	-8.80110	-14.53512
196	2	-1	-6.44125	-7.18740	-0.39261
197	4	1	1.02834	-6.63845	11.46931
198	4	1	-7.64962	-9.20438	8.95468
199	2	-1	2.20223	4.66600	-2.43002
200	3	-1	-4.05148	3.87582	7.08540
201	2	-1	-4.83668	5.30879	-10.53748
202	2	-1	0.26024	-8.97056	-13.75635
203	2	-1	6.04556	1.80252	-13.70413
204	1	1	-9.00712	6.55853	-0.85641
205	4	1	5.24827	-6.20624	3.70204
206	1	1	0.92759	8.81225	-1.21258
207	1	1	3.75369	-9.86872	-7.62580
208	2	-1	-4.57469	-7.22195	-3.34451
209	4	1	-6.12819	-8.41324	12.58694
210	4	1	7.10296	7.33606	3.56502
211	2	-1	4.00198	-0.25989	-1.80550
212	2	-1	6.48871	-2.93511	-11.37348
213	2	-1	6.11785	9.52273	-5.29332
214	1	1	0.19443	-7.07646	-14.78969
215	2	-1	-4.95284	-9.46997	-3.90746
216	4	1	0.37085	-2.26308	5.62963
217	1	1	-8.48089	-4.14952	-1.98152
218	2	-1	-5.43839	-2.01246	-6.90188
219	4	1	2.55840	-2.89207	10.71023
220	4	1	-2.15181	-5.20614	1.27286
221	2	-1	-4.13589	-3.68234	-5.38142
222	2	-1	6.73309	-7.94652	-9.52388
223	1	1	1.15330	-9.21663	-8.56752
224	2	-1	-5.34634	-1.59906	-7.64204
225	1	1	3.27454	2.31838	-6.18390
226	4	1	-0.46947	4.10417	13.89105
227	4	1	7.34701	8.00524	8.16439
228	2	-1	7.23091	-7.14513	-3.48580
229	2	-1	-8.18697	-1.35398	-3.32538
230	1	1	6.92044	6.16321	-8.62064
231	3	-1	9.48537	2.39345	13.46364
232	4	1	-3.44537	-7.26465	14.82759
233	4	1	-0.18656	-3.14421	14.25497
234	3	-1	-0.92884	-0.09774	5.14522
235	1	1	-9.37174	2.72284	-11.46255
236	3	-1	1.41875	-4.94297	12.84089
237	4	1	0.96696	-0.77704	0.63542
238	1	1	-9.37472	-3.24522	-13.30653
239	2	-1	-6.10399	2.56497	-4.90570
240	1	1	3.50393	3.52807	-13.54550
241	3	-1	-7.90271	3.07093	11.29834
242	4	1	4.60473	-4.73317	6.65924
243	3	-1	-2.55034	4.76663	10.58228
244	2	-1	-7.25159	-3.26713	-14.85434
245	3	-1	4.36174	-7.31310	0.76184
246	3	-1	-1.09089	-7.16993	14.04581
247	4	1	8.64381	-7.20300	1.97897
248	4	1	9.19157	4.87400	10.57308
249	4	1	-7.15916	7.04053	5.25315
250	4	1	-8.38667	2.20528	13.46860
251	4	1	-8.37598	5.45695	4.35440
252	4	1	5.39815	-7.29655	3.05551
253	2	-1	-6.59198	-1.10115	-9.22814
254	3	-1	-0.80708	-7.26208	7.67108
255	2	-1	7.47329	-6.03092	-11.92580
256	4	1	-4.01009	-3.36133	4.94632
257	2	-1	8.83585	9.93582	-2.07240
258	4	1	-5.72552	4.05604	3.04633
259	4	1	-4.35403	5.55071	9.15861
260	2	-1	8.62509	5.48907	-3.58883
261	4	1	-1.89287	-2.50684	3.28496
262	4	1	-7.87643	7.61043	13.24500
263	2	-1	1.88992	0.25641	-1.67967
264	1	1	-9.10054	3.01665	-0.03508
265	2	-1	6.20573	5.67827	-1.47265
266	2	-1	-1.68550	2.38395	-1.62093
267	4	1	5.68732	-0.99740	0.53250
268	3	-1	-5.78500	-8.32213	11.39825
269	1	1	7.75089	4.95114	-0.74466
270	1	1	8.28974	0.35901	-14.36901
271	3	-1	1.05153	-5.41458	10.45957
272	2	-1	-2.71784	-0.77677	-9.22056
273	3	-1	9.29009	6.73009	14.46612
274	2	-1	-2.74109	6.71644	-3.65664
275	3	-1	-6.41116	8.27176	12.83202
276	2	-1	-1.56377	-2.98108	-10.19822
277	3	-1	-5.99788	-9.32383	13.43225
278	3	-1	-4.07116	8.86980	9.46805
279	4	1	-7.04853	-9.45547	7.18430
280	2	-1	5.11864	-5.84344	-5.53897
281	1	1	0.03587	-2.67193	-4.16536
282	4	1	7.37517	-2.70093	3.16881
283	3	-1	8.70518	4.37231	2.40477
284	1	1	-9.68959	-4.87410	-13.34947
285	4	1	8.25581	4.92178	1.99956
286	2	-1	6.68262	-9.69475	-12.45369
287	2	-1	9.68601	9.92332	-4.87613
288	4	1	-9.23517	2.05994	3.65337
289	4	1	-7.86995	1.88947	13.07457
290	4	1	-8.56371	4.69189	7.84387
291	3	-1	-4.77038	4.28851	7.86865
292	4	1	0.54028	-7.29910	10.74170
293	3	-1	5.40365	7.58459	4.62887
294	3	-1	6.23749	9.97370	8.00742
295	1	1	-8.66583	-8.64303	-3.76268
296	4	1	1.51395	-3.78229	11.42857
297	2	-1	-2.12350	0.14299	-1.37561
298	4	1	5.58792	-5.39083	10.48162
299	4	1	5.14181	0.66044	1.17675
300	2	-1	9.84406	1.67168	-5.08131
301	3	-1	-1.79746	-0.89464	5.64627
302	2	-1	-1.21419	-4.30783	-2.62794
303	3	-1	4.21852	-2.44496	10.98890
304	2	-1	-3.16434	-1.13212	-8.55941
305	2	-1	-7.70597	-2.39008	-0.10821
306	3	-1	-4.25284	3.62006	3.56653
307	1	1	-0.73400	-4.64820	-3.48846
308	3	-1	-9.70979	2.30216	7.85948
309	1	1	9.30923	-4.42703	-13.25292
310	2	-1	6.65949	-8.12163	-1.07853
311	3	-1	-5.69300	-0.35541	14.39178
312	1	1	1.09921	3.84238	-10.19325
313	1	1	8.10458	3.98215	-14.56829
314	3	-1	-5.14757	1.38602	9.08866
315	1	1	-2.35748	-4.71703	-10.04106
316	1	1	3.13363	-6.18518	-9.72730
317	2	-1	7.98613	-1.59933	-13.34274
318	2	-1	-2.79948	-6.42535	-4.08684
319	3	-1	5.91664	5.97135	10.99927
320	3	-1	-9.23964	0.96740	14.41474
321	2	-1	-4.18029	-6.07484	-2.21768
322	2	-1	-8.40396	-1.35326	-3.19793
323	1	1	-0.32789	-0.58139	-2.36163
324	1	1	4.52014	-4.94204	-14.59651
325	3	-1	-0.06514	-9.48636	5.13968
326	1	1	0.08036	2.51095	-6.48529
327	3	-1	4.83477	3.91063	11.33260
328	2	-1	5.39425	2.95775	-4.02007
329	3	-1	-7.81315	-3.59961	7.61967
330	4	1	-9.89167	-3.46452	4.97626
331	3	-1	4.32778	-9.82346	11.92019
332	2	-1	4.74571	-8.88499	-10.87323
333	2	-1	1.92805	-8.39038	-8.26152
334	4	1	6.58044	1.03795	9.61157
335	4	1	8.32035	-6.81407	8.34947
336	1	1	-3.06292	8.89438	-11.84341
337	3	-1	7.42737	1.40307	12.45130
338	4	1	-7.42732	-4.42874	0.58993
339	4	1	3.55031	0.86250	13.59995
340	1	1	-4.42785	2.53435	-14.77130
341	1	1	-3.37198	1.03022	-10.19978
342	2	-1	0.40637	-9.47370	-9.80054
343	2	-1	-5.14517	6.29088	-6.17747
344	1	1	-7.74643	-4.23794	-11.60478
345	2	-1	-9.07247	-5.84158	-14.88055
346	4	1	4.84882	8.94949	11.15573
347	3	-1	8.41736	8.24729	2.42933
348	4	1	9.68716	-3.37282	7.44587
349	4	1	3.43539	4.29221	13.76885
350	4	1	4.12508	-4.27773	14.72053
351	4	1	-7.81662	4.94510	13.84321
352	1	1	-9.74925	5.68366	-13.52293
353	1	1	-4.15884	8.55982	-4.53159
354	1	1	9.70018	-0.63234	-12.09161
355	4	1	5.74689	8.50949	8.25396
356	3	-1	1.47532	-8.86789	11.18145
357	1	1	9.44617	6.58326	-0.53003
358	2	-1	-6.04784	6.61521	-8.85596
359	4	1	-4.34659	6.39862	8.92291
360	3	-1	8.00685	-2.38121	4.96788
361	1	1	-1.78455	-0.46739	-14.04098
362	3	-1	-5.92877	-9.96833	11.09454
363	4	1	8.17095	9.58084	12.25407
364	2	-1	9.34868	-8.27256	-7.99266
365	4	1	4.02655	-4.87943	13.58512
366	4	1	-6.55314	8.68848	12.72283
367	1	1	-6.88131	-0.02386	-7.26271
368	2	-1	-3.83378	7.90330	-9.76072
369	3	-1	0.03252	1.64150	8.06333
370	1	1	-5.98165	0.15972	-5.38868
371	4	1	9.16510	-6.62542	14.43716
372	4	1	6.25877	1.56086	6.30620
373	4	1	9.66534	-0.06736	2.65955
374	4	1	1.72713	0.71198	5.89063
375	4	1	-7.00986	9.04193	10.56581
376	2	-1	8.59186	-1.80916	-14.82432
377	2	-1	0.54213	9.16257	-0.35395
378	1	1	-3.46886	-6.82873	-14.53755
379	4	1	2.54237	1.67785	13.80579
380	3	-1	-6.51589	9.70646	2.71053
381	3	-1	3.38363	5.28914	2.03492
382	3	-1	5.52566	3.75046	3.07412
383	2	-1	7.26792	8.17198	-2.58705
384	1	1	4.12409	0.48823	-11.44171
385	1	1	7.77673	5.49671	-3.85757
386	2	-1	1.74644	8.07369	-9.53403
387	3	-1	3.93814	1.44973	9.50293
388	2	-1	-9.50410	-6.79151	-0.13812
389	3	-1	3.93266	-6.35664	5.72542
390	1	1	9.64170	-8.83831	-0.05008
391	4	1	2.69481	1.09609	5.49294
392	2	-1	4.47086	6.46629	-5.34944
393	3	-1	-6.45062	-2.13557	6.31026
394	1	1	-5.59199	4.27291	-4.63279
395	1	1	1.21031	-3.60681	-11.76993
396	1	1	1.14571	-7.74248	-8.70854
397	1	1	-9.65845	4.52817	-9.76492
398	3	-1	9.63944	7.04047	11.49793
399	3	-1	0.75805	-4.93898	10.04310
400	3	-1	-9.77887	6.70667	5.83643
401	3	-1	-1.02657	-9.22383	11.17059
402	3	-1	9.70100	-4.35457	2.45914
403	4	1	7.62208	6.95693	12.50398
404	2	-1	9.11230	-7.61156	-0.36049
405	3	-1	8.35132	-3.74093	11.11409
406	3	-1	1.37916	4.25546	4.62180
407	1	1	-9.81072	-4.85853	-1.09866
408	3	-1	3.07144	-9.45712	10.85753
409	1	1	6.14083	1.08840	-10.49216
410	2	-1	9.87588	2.06538	-3.74400
411	1	1	2.11065	9.63785	-2.99359
412	1	1	9.95235	5.30229	-11.23078
413	3	-1	5.15084	3.65480	9.07821
414	3	-1	5.95475	8.17917	0.59936
415	3	-1	3.41116	-3.40726	12.32919
416	2	-1	8.86144	-1.52073	-6.31077
417	4	1	0.88474	7.89704	1.56716
418	4	1	-0.08766	0.29779	9.52759
419	1	1	9.22208	-5.44017	-1.64795
420	1	1	4.15696	8.33213	-5.14579
421	4	1	8.56092	-8.24263	5.49745
422	1	1	0.18844	1.67390	-13.81585
423	4	1	-6.26274	7.10103	8.00019
424	1	1	8.86111	-7.12948	-14.07323
425	1	1	9.66981	-9.68372	-9.00488
426	2	-1	-2.72388	-6.61803	-8.91548
427	3	-1	7.37069	-0.24788	10.82147
428	2	-1	0.14721	8.34768	-4.24235
429	4	1	-2.63847	-2.06143	3.85691
430	1	1	2.15200	-7.41651	-0.76015
431	1	1	-3.27120	-8.88312	-2.52832
432	3	-1	8.06764	-3.08741	12.25572
433	4	1	-4.24103	5.30821	6.55897
434	1	1	-0.64994	-5.34484	-9.53160
435	3	-1	-4.98844	-8.40798	4.25699
436	4	1	-9.36333	5.04511	2.65352
437	2	-1	6.89529	-0.49839	-8.71143
438	4	1	-1.26195	5.57737	3.61231
439	1	1	2.44604	0.32850	-8.36869
440	4	1	5.97809	-9.03163	2.57553
441	1	1	-0.05414	-3.24572	-1.65356
442	3	-1	-9.28106	6.33541	4.93703
443	1	1	3.68935	3.66396	-14.28762
444	3	-1	-3.66831	2.20836	6.50830
445	4	1	-3.49787	0.99981	10.93992
446	2	-1	-2.32740	5.72481	-3.04236
447	2	-1	4.84181	7.17571	-2.67661
448	1	1	3.52382	0.93754	-14.89631
449	4	1	-7.79847	6.95993	6.92971
450	4	1	-1.80865	-0.30488	3.78034
451	3	-1	-2.41337	-9.11422	14.74090
452	1	1	1.86603	1.48604	-2.71039
453	2	-1	0.44936	4.67086	-0.87533
454	1	1	-0.25978	0.57679	-4.90502
455	1	1	5.28863	-0.41180	-9.13732
456	2	-1	-8.92809	-1.56510	-12.86398
457	2	-1	-6.05179	-8.05739	-3.41669
458	2	-1	0.82992	2.88590	-11.78564
459	2	-1	-3.34251	0.96369	-10.58798
460	2	-1	-7.41974	-4.60663	-11.97857
461	1	1	2.25632	7.51194	-9.44320
462	2	-1	-0.69128	-3.38762	-9.48352
463	4	1	-7.08961	-7.30402	1.37223
464	4	1	-0.24844	-6.53273	12.20586
465	1	1	-8.13717	5.59972	-1.88002
466	4	1	3.67217	4.52920	9.86350
467	2	-1	8.56852	-6.13462	-13.87364
468	3	-1	2.17699	0.43765	0.60347
469	3	-1	2.96096	-3.69207	1.90785
470	4	1	7.06871	8.80274	13.19223
471	4	1	1.66103	-7.50203	3.25154
472	4	1	-6.97829	-0.93622	3.75996
473	1	1	4.48282	-6.56205	-7.04084
474	4	1	2.18970	-8.07260	7.77445
475	4	1	1.86421	-8.66238	13.59018
476	1	1	4.32881	8.36091	-10.43612
477	4	1	3.65625	-3.27592	3.18098
478	1	1	-3.77780	-1.75518	-10.08927
479	3	-1	-9.20712	6.48137	10.60635
480	2	-1	0.98621	-5.89502	-5.18167
481	4	1	4.92584	9.50246	5.88146
482	3	-1	-7.73903	-4.48531	7.86850
483	2	-1	6.27514	-1.50170	-14.14428
484	3	-1	3.95221	1.45626	3.17728
485	4	1	4.55511	4.12402	13.04070
486	2	-1	5.55879	1.00488	-6.18262
487	4	1	-7.05662	2.90202	7.43944
488	3	-1	2.76875	4.69696	0.69259
489	3	-1	-8.14452	-6.89236	5.03002
490	3	-1	8.03695	-2.08587	3.88253
491	2	-1	5.69009	-2.36956	-9.91732
492	2	-1	-4.99636	-0.09630	-8.04931
493	1	1	3.73207	2.60894	-13.90635
494	3	-1	-6.53006	-9.58274	0.23011
495	2	-1	-7.26387	-4.13692	-9.23465
496	3	-1	-5.75047	2.68575	2.77425
497	4	1	-9.07952	0.17220	11.37872
498	1	1	-8.82045	-7.37230	-5.49555
499	2	-1	0.05646	1.37750	-5.25023
500	2	-1	4.34046	-5.53755	-13.41091
501	2	-1	-5.93711	-3.19281	-10.93006
502	1	1	-1.96073	2.04202	-3.44647
503	3	-1	-8.10345	1.37320	10.12787
504	2	-1	-7.77224	3.51051	-8.27561
505	1	1	6.35685	-8.88089	-11.49782
506	2	-1	-8.62484	4.57828	-2.32548
507	3	-1	-4.08474	-1.99280	8.72743
508	3	-1	-4.90267	0.66185	13.54835
509	3	-1	8.28091	6.71497	1.13817
510	4	1	5.70433	-8.87569	11.25412
511	4	1	-3.92302	6.72150	1.00335
512	4	1	-4.60069	9.27723	14.05858
513	2	-1	3.68822	-1.21879	-13.71951
514	1	1	7.00084	-6.71760	-3.00435
515	2	-1	-1.51051	-6.41886	-5.86349
516	4	1	-9.82008	-3.12486	2.42129
517	4	1	-6.03530	-4.51823	4.45093
518	1	1	-8.08968	-1.43665	-5.86477
519	1	1	8.55426	5.77274	-12.16594
520	1	1	-9.53479	1.32011	-4.71539
521	1	1	0.68021	1.57014	-14.04862
522	4	1	7.57537	-3.59731	4.26927
523	3	-1	-0.38781	5.79388	4.65680
524	3	-1	-0.86474	-3.20612	10.40226
525	4	1	-4.72005	5.02399	5.36090
526	4	1	-4.26616	-9.60390	12.64703
527	2	-1	-1.18508	2.37532	-13.94801
528	2	-1	2.29346	-3.08108	-2.05647
529	4	1	-9.14404	1.68688	9.06693
530	3	-1	4.61915	-9.44730	6.81291
531	3	-1	-7.14754	3.11723	0.40570
532	4	1	-8.39643	6.16928	9.73207
533	2	-1	-9.53750	8.84917	-2.11153
534	4	1	0.72382	-0.90758	5.02171
535	1	1	7.71718	-3.60816	-1.69871
536	2	-1	3.49494	5.43941	-11.89514
537	4	1	-9.49447	9.76825	0.83287
538	1	1	-7.92016	-0.20140	-1.52639
539	4	1	-0.55979	-2.49909	9.89808
540	1	1	8.66172	-4.01390	-9.12665
541	3	-1	9.73287	-3.18592	5.99959
542	1	1	-7.39911	-4.42744	-8.49308
543	3	-1	3.28605	7.00431	7.48647
544	1	1	8.00095	-7.41579	-1.86602
545	4	1	-4.02120	-3.73177	3.53901
546	3	-1	-1.06206	2.18691	9.44126
547	3	-1	-7.80177	3.80502	12.90618
548	1	1	-8.27669	-4.25280	-6.39952
549	3	-1	8.05967	4.83752	7.31570
550	2	-1	-0.64584	-2.63485	-11.37407
551	2	-1	-9.79778	1.25624	-8.93548
552	4	1	3.68600	-2.00833	13.02492
553	3	-1	-4.51543	7.27806	5.66791
554	2	-1	-3.57839	4.05711	-10.17817
555	1	1	9.86396	-3.35256	-2.61644
556	1	1	-2.56516	-9.26038	-13.07224
557	4	1	1.81842	-5.68316	12.14626
558	1	1	9.61109	-6.27007	-0.90135
559	4	1	-1.57009	-6.35108	12.58770
560	4	1	-9.12853	-4.74681	14.04982
561	4	1	-0.85133	-1.59009	7.19509
562	3	-1	-2.34938	8.91296	10.87694
563	3	-1	-4.62943	0.63521	14.37951
564	3	-1	5.52828	7.30670	0.93261
565	1	1	4.04938	8.56468	-8.71035
566	1	1	0.56028	-2.02469	-5.12251
567	2	-1	-9.11105	-1.99261	-3.87304
568	3	-1	-5.70299	6.10608	9.08662
569	1	1	7.82164	5.57816	-6.51416
570	4	1	-8.16120	4.60934	5.27157
571	2	-1	-9.94973	-6.38253	-0.99449
572	3	-1	1.71066	-5.53897	7.34912
573	3	-1	-5.27759	3.00147	13.71604
574	4	1	2.33910	-9.97088	12.85068
575	4	1	-7.71810	-2.22537	11.58918
576	3	-1	-0.84090	0.27595	13.44216
577	3	-1	1.71889	8.67090	11.55253
578	3	-1	0.47593	0.37790	5.65638
579	1	1	-7.76144	-5.41387	-12.93676
580	2	-1	5.12865	-1.01724	-13.15130
581	2	-1	6.79987	8.67865	-14.28336
582	2	-1	-9.62982	1.40695	-4.61881
583	3	-1	3.52904	5.49017	8.37279
584	1	1	4.27693	-7.12016	-5.08970
585	2	-1	-9.97908	5.82175	-7.88333
586	3	-1	-3.40271	-9.11899	1.16656
587	2	-1	-4.53662	-8.56220	-8.79321
588	3	-1	1.26899	-1.69761	10.27107
589	2	-1	7.42523	-9.55364	-5.31318
590	4	1	-2.80975	4.27117	8.20985
591	2	-1	2.64446	-1.81202	-12.44683
592	1	1	4.96916	1.63415	-6.27217
593	1	1	3.13854	-9.59987	-5.79071
594	3	-1	8.12808	3.37868	8.87674
595	3	-1	5.90874	-8.98412	10.63372
596	1	1	-1.51820	2.09781	-13.56081
597	2	-1	0.92269	5.74328	-9.19548
598	1	1	2.36837	-4.18640	-4.78860
599	3	-1	-2.77736	-7.20975	11.41928
600	1	1	4.84113	-9.48184	-7.21840
601	1	1	-0.61040	-3.37678	-14.93516
602	3	-1	0.49984	-9.50089	0.71579
603	4	1	-5.45787	-3.11993	9.26683
604	4	1	-4.61686	-6.37621	13.76856
605	1	1	-6.67448	2.79196	-5.82114
606	1	1	-1.44038	-0.41536	-1.26571
607	1	1	-9.10050	-5.45605	-6.07148
608	1	1	-8.31679	-7.55959	-14.43300
609	1	1	0.26993	-8.33794	-7.53383
610	3	-1	-0.25794	1.69540	14.46710
611	1	1	6.61145	-5.51784	-13.20676
612	1	1	-6.74721	-5.79378	-11.82861
613	1	1	-6.92817	9.61274	-4.04348
614	1	1	3.73856	-2.68878	-1.18179
615	4	1	-1.76668	2.25983	14.09489
616	1	1	-7.68602	-8.83358	-12.06409
617	1	1	-2.27647	-2.90585	-6.35772
618	2	-1	-8.04347	-1.56155	-1.77809
619	3	-1	-6.08655	5.63021	5.00893
620	3	-1	-4.63072	-7.00015	9.02524
621	2	-1	2.72309	-5.73403	-9.34124
622	2	-1	2.72154	6.34580	-2.42510
623	2	-1	3.63806	1.74457	-2.84859
624	3	-1	2.81089	-6.03764	13.00325
625	2	-1	-5.49944	-9.55823	-14.21407
626	3	-1	8.79780	-2.55769	1.66429
627	4	1	-0.20200	-0.23697	11.00816
628	1	1	-5.01471	-0.03198	-0.56288
629	3	-1	5.15927	-3.40550	5.73752
630	3	-1	-9.37388	-9.55742	5.94685
631	1	1	7.76189	8.81091	-12.74035
632	2	-1	6.19243	-0.41958	-9.90248
633	4	1	-0.78720	2.72741	9.32359
634	1	1	4.83639	-3.14112	-12.56496
635	2	-1	7.45513	9.91106	-13.33927
636	1	1	9.23414	9.17327	-7.23794
637	4	1	3.91652	-9.74823	8.73712
638	4	1	-6.42431	3.02945	1.44460
639	1	1	-5.69455	9.05094	-8.00445
640	4	1	6.08540	-7.76222	0.13620
641	1	1	0.83751	9.71260	-1.99646
642	4	1	6.90520	1.82083	10.59394
643	2	-1	-6.37373	5.13523	-12.00792
644	3	-1	7.41254	4.95951	1.93363
645	4	1	-4.73980	-8.88958	4.34108
646	4	1	-7.07492	8.40292	8.64829
647	3	-1	0.34856	-5.19166	4.17436
648	4	1	4.97174	-7.33405	0.37310
649	2	-1	-3.44727	1.80455	-11.15975
650	4	1	-2.54285	-6.23404	12.94123
651	1	1	9.93847	5.98809	-7.40644
652	2	-1	-4.64468	-9.42585	-4.56028
653	2	-1	8.48321	7.58415	-2.20187
654	2	-1	1.84555	2.16542	-9.89420
655	1	1	5.50993	-0.31680	-12.97694
656	4	1	7.82288	-6.80882	10.26786
657	2	-1	-7.63969	-2.72977	-3.08460
658	4	1	-4.87084	-7.23686	10.22818
659	2	-1	-8.14484	7.92430	-2.69999
660	4	1	-3.26427	8.03205	14.92827
661	4	1	-6.78331	4.87112	12.77966
662	2	-1	5.64825	-3.72783	-4.21519
663	3	-1	-0.13455	-0.87199	12.73324
664	2	-1	-9.27882	-0.09294	-0.66292
665	3	-1	-3.47434	-8.51898	12.42410
666	1	1	-9.17477	-1.09292	-7.50839
667	3	-1	1.90412	-4.86720	5.17510
668	2	-1	-2.07555	4.51330	-12.54234
669	3	-1	9.53228	8.48620	0.66695
670	3	-1	-6.75000	4.05552	7.64694
671	4	1	-5.24521	-6.11032	0.75823
672	4	1	3.82785	-3.58945	0.27501
673	4	1	-8.43140	-2.65266	7.80794
674	1	1	1.29184	2.56221	-9.59012
675	1	1	-2.30232	-0.85182	-9.26117
676	2	-1	3.51359	5.29551	-5.54054
677	2	-1	4.37830	2.14203	-9.26545
678	2	-1	-2.85566	-2.11263	-3.18966
679	1	1	-9.11986	9.01420	-6.82434
680	1	1	4.07979	-7.46188	-6.32065
681	3	-1	-2.48830	7.16905	7.20081
682	3	-1	1.62130	-5.20582	14.70103
683	2	-1	-5.35022	5.25745	-6.65101
684	3	-1	-7.26798	0.27989	11.51835
685	4	1	4.92354	5.43866	0.11310
686	2	-1	5.69326	-9.87521	-7.66324
687	2	-1	-8.36335	-7.88580	-5.26464
688	1	1	-3.25233	6.88901	-10.83996
689	1	1	2.01792	-9.00904	-8.70593
690	3	-1	-9.88057	-6.07426	1.44418
691	4	1	0.26729	1.76917	10.84827
692	3	-1	-4.00300	8.18872	8.43115
693	2	-1	6.45358	-7.16431	-2.47038
694	4	1	4.15804	-4.93684	14.04488
695	2	-1	-1.14715	-4.69637	-8.51104
696	2	-1	1.88131	-9.93205	-11.91109
697	4	1	3.86946	1.72000	3.81187
698	1	1	-3.82178	2.36674	-0.65107
699	1	1	-2.94928	-2.77749	-12.22684
700	1	1	7.00912	2.90603	-8.09963
701	2	-1	6.81997	-7.76115	-10.88525
702	1	1	-0.20246	3.46613	-4.54061
703	2	-1	9.39259	-8.89218	-8.95644
704	1	1	-7.91572	9.72736	-1.64772
705	2	-1	-2.53410	6.31860	-13.17842
706	2	-1	-9.30742	-4.33924	-7.75013
707	2	-1	-2.51579	-5.63990	-10.98632
708	3	-1	-3.72659	-8.65528	0.97771
709	2	-1	-1.26296	-9.15028	-6.36060
710	2	-1	6.25506	-0.07737	-0.49231
711	3	-1	8.61158	4.10037	11.68313
712	1	1	-1.73338	-2.57272	-3.13440
713	1	1	6.35943	-6.55807	-0.59632
714	4	1	7.57361	-3.75291	12.63332
715	2	-1	9.83127	7.40548	-8.18538
716	2	-1	3.60255	-0.67350	-9.62793
717	3	-1	8.94025	-3.63060	11.05165
718	2	-1	-5.89518	-2.51876	-9.58821
719	2	-1	0.36774	-6.87184	-6.51472
720	4	1	-2.03568	-8.79768	11.36381
721	1	1	-9.41472	0.67484	-13.62822
722	4	1	-3.09662	-1.48692	3.13307
723	2	-1	9.31768	-8.01210	-3.87860
724	3	-1	-1.67476	-2.34575	5.68326
725	4	1	-1.07055	-5.71549	7.90259
726	2	-1	3.92215	7.85729	-6.21574
727	1	1	8.60929	-2.19244	-0.11376
728	2	-1	-7.47781	4.50993	-12.94536
729	3	-1	1.28473	4.66478	4.90158
730	1	1	0.14773	-0.04980	-10.06347
731	1	1	-7.21489	0.98598	-4.29027
732	3	-1	1.51189	5.00262	1.64263
733	1	1	0.58265	-7.52648	-14.02898
734	4	1	2.04892	6.86054	11.97809
735	4	1	-7.56437	4.03319	8.13818
736	1	1	-5.86657	3.67721	-10.49805
737	3	-1	-1.31761	-6.09067	8.97093
738	2	-1	-2.37334	6.08035	-9.56932
739	4	1	-6.43487	-7.12397	0.73515
740	3	-1	5.86743	6.08559	12.74845
741	1	1	4.43269	-1.89029	-3.53813
742	4	1	0.21051	-1.04322	12.43998
743	4	1	-4.28923	-2.19362	0.04119
744	1	1	7.22019	-4.82830	-6.07270
745	2	-1	6.86547	-3.10011	-2.86216
746	4	1	-8.71083	3.19726	1.87861
747	4	1	0.04991	-1.87231	0.09658
748	2	-1	-3.64273	6.66535	-13.74868
749	2	-1	6.22312	6.80360	-3.82538
750	1	1	8.56066	-0.32305	-5.23529
751	4	1	-1.50603	-8.30955	5.48424
752	4	1	-7.67107	8.80718	9.16143
753	2	-1	-1.39898	0.05014	-7.97597
754	3	-1	7.55206	5.91480	4.83365
755	1	1	6.66286	9.47075	-9.45548
756	3	-1	-2.08062	7.73575	4.85503
757	1	1	-2.80896	-0.56208	-6.15400
758	2	-1	7.89940	7.73367	-3.57861
759	1	1	-3.16246	-9.89598	-6.50268
760	1	1	4.57257	4.38945	-8.53585
761	4	1	2.00768	-9.14845	8.66956
762	1	1	3.70394	-3.99410	-2.59771
763	1	1	-6.16805	8.97282	-10.94680
764	1	1	-3.77191	9.67059	-3.00538
765	3	-1	7.43984	-4.90898	10.57599
766	2	-1	-0.37802	-1.02747	-2.14040
767	3	-1	2.30563	-2.54256	11.17619
768	1	1	-6.33506	-4.58249	-5.27570
769	2	-1	-0.75239	8.93100	-5.34182
770	1	1	-1.09537	-4.13444	-3.33391
771	4	1	-3.88585	2.89033	14.00296
772	1	1	-3.68908	-9.78161	-9.37214
773	2	-1	4.24599	6.09487	-4.11137
774	2	-1	-9.40407	3.89907	-4.23748
775	1	1	-4.25977	7.32968	-10.94177
776	1	1	-6.79547	-3.49047	-14.07669
777	2	-1	-9.15058	-6.34254	-7.65328
778	3	-1	-6.85158	8.32460	7.70527
779	2	-1	-2.51008	0.45861	-10.55793
780	4	1	8.56932	-5.14605	3.80163
781	1	1	0.67667	6.24693	-14.95655
782	4	1	-3.25674	2.30002	12.34088
783	1	1	0.10408	0.00504	-12.37613
784	4	1	-7.51391	-8.05773	11.16019
785	1	1	-1.15769	-4.06596	-3.18615
786	3	-1	7.47313	1.08321	1.59221
787	2	-1	-0.58824	5.85879	-0.89517
788	3	-1	4.18282	7.49015	6.41268
789	2	-1	-4.15928	3.04171	-13.62789
790	3	-1	-6.28620	9.23726	2.28107
791	4	1	-5.76030	0.44291	3.88754
792	2	-1	-6.32010	-1.89391	-14.65854
793	3	-1	6.98148	3.79302	8.23678
794	3	-1	-3.82106	2.84854	1.79043
795	3	-1	1.64437	2.46273	1.93056
796	4	1	-5.66605	-1.74631	14.02286
797	1	1	-1.98333	-2.79711	-6.31203
798	2	-1	-0.62800	-7.39978	-13.17427
799	3	-1	7.00455	1.64059	7.15749
800	1	1	2.44844	-8.49400	-5.76727
801	4	1	-2.66448	3.84700	13.45657
802	4	1	3.15240	9.53885	12.98137
803	3	-1	8.60399	3.59458	5.41277
804	3	-1	5.91645	-8.94367	7.01490
805	2	-1	-9.79865	-5.74518	-1.26352
806	2	-1	-5.35218	0.94933	-3.77772
807	2	-1	-3.03386	7.02799	-11.15731
808	2	-1	-6.97404	4.11512	-3.64572
809	1	1	-1.30534	-0.92673	-9.47028
810	1	1	-2.01660	-3.27642	-2.48682
811	1	1	8.73436	-5.58439	-0.94351
812	4	1	6.72033	-2.48772	9.73613
813	3	-1	5.78313	5.82877	5.26322
814	2	-1	6.53029	-5.26869	-5.16359
815	2	-1	5.49356	-0.79456	-14.57899
816	3	-1	6.47633	9.65450	3.23802
817	2	-1	1.64251	7.90709	-9.52529
818	4	1	9.60583	-7.34480	7.47617
819	2	-1	-6.62405	2.39758	-1.19666
820	4	1	5.55671	8.38555	6.00630
821	2	-1	4.03645	-2.57157	-12.52813
822	1	1	7.44610	3.72887	-9.42358
823	2	-1	9.31493	6.57441	-10.35555
824	1	1	7.45232	-9.95845	-12.67102
825	4	1	-5.66198	8.65383	14.24064
826	3	-1	8.95189	6.02171	13.74966
827	1	1	-7.55468	-4.50933	-11.37195
828	1	1	6.40445	1.45019	-3.85780
829	1	1	-8.40661	-2.57842	-4.26711
830	4	1	-6.75094	-4.43191	3.30740
831	4	1	3.52722	-6.84540	14.90953
832	3	-1	-4.10792	-5.51964	6.64563
833	4	1	5.51998	9.54736	14.46831
834	2	-1	-2.07143	-0.65282	-1.18603
835	2	-1	-2.30036	-6.18002	-1.87614
836	3	-1	2.27280	-7.37500	6.98781
837	4	1	-8.45467	4.39915	7.08426
838	4	1	-2.72951	1.05335	13.76529
839	1	1	6.64825	5.40642	-8.22440
840	2	-1	-9.35205	7.29788	-1.67473
841	2	-1	-5.15637	5.39197	-13.00972
842	4	1	6.08284	3.85982	2.08861
843	1	1	4.42947	0.25173	-8.62738
844	4	1	8.78315	1.00320	4.41693
845	4	1	0.70341	3.52167	1.29136
846	1	1	-2.31822	7.07903	-6.70488
847	3	-1	2.55895	-9.45024	4.34267